 Gaussian 09, Revision D.01,

 ------------------------------------------------
 #P BHandHLYP/6-31g** SCF=XQC guess=(Read,TCheck)
 ------------------------------------------------

 -------
 comment
 -------
 Symbolic Z-matrix:
 Charge =  0 Multiplicity = 1

 SCF Done:  E(RBHandHLYP) =  -76.3789131677     A.U. after    7 cycles

 The electronic state is 1-A1.
 Alpha  occ. eigenvalues --  -19.68872  -1.12967  -0.58934  -0.45206  -0.37672
 Alpha virt. eigenvalues --    0.11072   0.19945   0.83754   0.89628   0.97442
 Alpha virt. eigenvalues --    0.98710   1.11080   1.25468   1.62394   1.63514
 Alpha virt. eigenvalues --    1.74151   2.34324   2.36675   2.55693   2.75050

 Mulliken charges:
               1
     1  O   -0.640821
     2  H    0.320410
     3  H    0.320410
 Sum of Mulliken charges =   0.00000

 Dipole moment (field-independent basis, Debye):
    X=              0.0000    Y=              0.0000    Z=             -2.1154  Tot=              2.1154
 Quadrupole moment (field-independent basis, Debye-Ang):
   XX=             -7.1574   YY=             -4.1881   ZZ=             -5.9518
   XY=              0.0000   XZ=              0.0000   YZ=              0.0000

 Normal termination of Gaussian 09 at Thu Oct  4 13:19:36 2018.
 Gaussian 09:  ES64L-G09RevD.01 24-Apr-2013

 ----------------------------------------------------------------------
 #P BHandHLYP/6-31g** SCF=XQC FORCE TD=(nstates=2,root=2,conver=5) Geom
 =Check Guess=Read
 ----------------------------------------------------------------------

 -------
 comment
 -------
 Structure from the checkpoint file:  "checkpoint.chk"
 Charge =  0 Multiplicity = 1

                         Standard orientation:
 ---------------------------------------------------------------------
 Center     Atomic      Atomic             Coordinates (Angstroms)
 Number     Number       Type             X           Y           Z
 ---------------------------------------------------------------------
      1          8           0        0.000000    0.000000    0.119592
      2          1           0        0.000000   -0.765878   -0.478369
      3          1           0        0.000000    0.765878   -0.478369
 ---------------------------------------------------------------------
