 Gaussian 09, Revision D.01,

 --------------------------------------------------
 #P BHandHLYP/6-31++g** SCF=XQC guess=(Read,TCheck)
 --------------------------------------------------

 -------
 comment
 -------
 Symbolic Z-matrix:
 Charge =  1 Multiplicity = 2

 SCF Done:  E(UBHandHLYP) =  -75.9360775927     A.U. after    8 cycles

 The electronic state is 2-B1.
 Alpha  occ. eigenvalues --  -20.27322  -1.68397  -1.09070  -0.97984  -0.96454
 Alpha virt. eigenvalues --   -0.25574  -0.17458  -0.08009  -0.07047  -0.04748
 Alpha virt. eigenvalues --   -0.04221   0.02268   0.03709   0.62143   0.70303
 Alpha virt. eigenvalues --    0.75453   0.82572   0.86806   1.05452   1.13238

  Beta  occ. eigenvalues --  -20.24134  -1.58598  -1.06528  -0.92818
  Beta virt. eigenvalues --   -0.51874  -0.24762  -0.17004  -0.06769  -0.05334
  Beta virt. eigenvalues --   -0.04680  -0.03631   0.02401   0.04237   0.62350
  Beta virt. eigenvalues --    0.71537   0.84108   0.85688   0.87661   1.07098

 Mulliken charges and spin densities:
               1          2
     1  O    0.047459   1.057118
     2  H    0.476271  -0.028559
     3  H    0.476271  -0.028559
 Sum of Mulliken charges =   1.00000   1.00000

 Dipole moment (field-independent basis, Debye):
    X=              0.0000    Y=              0.0000    Z=             -2.3631  Tot=              2.3631
 Quadrupole moment (field-independent basis, Debye-Ang):
   XX=             -4.7411   YY=             -2.1136   ZZ=             -4.2730
   XY=              0.0000   XZ=              0.0000   YZ=              0.0000

 Normal termination of Gaussian 09 at Wed Oct 17 14:57:53 2018.
 Gaussian 09:  ES64L-G09RevD.01 24-Apr-2013

 ----------------------------------------------------------------------
 #P BHandHLYP/6-31++g** SCF=XQC FORCE TD=(nstates=2,root=2,conver=5) Ge
 om=Check Guess=Read
 ----------------------------------------------------------------------

 -------
 comment
 -------
 Structure from the checkpoint file:  "checkpoint.chk"
 Charge =  1 Multiplicity = 2

                         Standard orientation:
 ---------------------------------------------------------------------
 Center     Atomic      Atomic             Coordinates (Angstroms)
 Number     Number       Type             X           Y           Z
 ---------------------------------------------------------------------
      1          8           0        0.000000    0.000000    0.119449
      2          1           0        0.000000   -0.760834   -0.477795
      3          1           0        0.000000    0.760834   -0.477795
 ---------------------------------------------------------------------
