 Gaussian 09, Revision D.01,
 Gaussian 09:  ES64L-G09RevD.01 24-Apr-2013

 --------------------------------------
 #BLYP/6-31g* Force guess=(Read,TCheck)
 --------------------------------------

 -------
 comment
 -------
 Symbolic Z-matrix:
 Charge =  0 Multiplicity = 1

                         Standard orientation:
 ---------------------------------------------------------------------
 Center     Atomic      Atomic             Coordinates (Angstroms)
 Number     Number       Type             X           Y           Z
 ---------------------------------------------------------------------
      1          8           0        0.000000    0.000000    0.118374
      2          1           0        0.000000   -0.758840   -0.473496
      3          1           0        0.000000    0.758840   -0.473496
 ---------------------------------------------------------------------

 SCF Done:  E(RB-LYP) =  -76.3880128048     A.U. after    6 cycles

 The electronic state is 1-A1.
 Alpha  occ. eigenvalues --  -18.78183  -0.90064  -0.45887  -0.30629  -0.22399
 Alpha virt. eigenvalues --    0.03859   0.12245   0.72922   0.80484   0.83695
 Alpha virt. eigenvalues --    0.84951   1.00753   1.14837   1.67256   1.68840
 Alpha virt. eigenvalues --    1.72330   2.22194   2.51662   3.46770

 Mulliken charges:
               1
     1  O   -0.740808
     2  H    0.370404
     3  H    0.370404
 Sum of Mulliken charges =   0.00000

 Dipole moment (field-independent basis, Debye):
    X=              0.0000    Y=              0.0000    Z=             -2.0166  Tot=              2.0166
 Quadrupole moment (field-independent basis, Debye-Ang):
   XX=             -7.1911   YY=             -4.3556   ZZ=             -6.0316
   XY=              0.0000   XZ=              0.0000   YZ=              0.0000

 Normal termination of Gaussian 09 at Thu Jul 19 14:56:51 2018.
