 Gaussian 09, Revision D.01,

 --------------------------------------------------
 #P BHandHLYP/6-31++g** SCF=XQC guess=(Read,TCheck)
 --------------------------------------------------

 -------
 comment
 -------
 Symbolic Z-matrix:
 Charge =  1 Multiplicity = 2

 SCF Done:  E(UBHandHLYP) =  -75.9355827303     A.U. after    7 cycles
 Normal termination of Gaussian 09 at Wed Oct 17 14:26:16 2018.
 Gaussian 09:  ES64L-G09RevD.01 24-Apr-2013

 ----------------------------------------------------------------------
 #P BHandHLYP/6-31++g** SCF=XQC FORCE TD=(nstates=2,root=2,conver=5) Ge
 om=Check Guess=Read
 ----------------------------------------------------------------------

 -------
 comment
 -------
 Structure from the checkpoint file:  "checkpoint.chk"
 Charge =  1 Multiplicity = 2

                         Standard orientation:
 ---------------------------------------------------------------------
 Center     Atomic      Atomic             Coordinates (Angstroms)
 Number     Number       Type             X           Y           Z
 ---------------------------------------------------------------------
      1          8           0        0.000000    0.000000    0.118368
      2          1           0        0.000000   -0.758437   -0.473470
      3          1           0        0.000000    0.758437   -0.473470
 ---------------------------------------------------------------------

 SCF Done:  E(UBHandHLYP) =  -75.9355827303     A.U. after    1 cycles

 Excitation energies and oscillator strengths:

 Excited State   1:  2.004-B1     2.3372 eV  530.48 nm  f=0.0011  <S**2>=0.754
      4B ->  5B        0.99327
      4B ->  9B       -0.10192

 Excited State   2:  2.005-A2     6.4518 eV  192.17 nm  f=0.0000  <S**2>=0.755
      3B ->  5B        0.99349
 This state for optimization and/or second-order correction.
 Total Energy, E(TD-HF/TD-KS) =  -75.6984831714
 Copying the excited state density for this state as the 1-particle RhoCI density.

 The electronic state is 2-B1.
 Alpha  occ. eigenvalues --  -20.27355  -1.68691  -1.09455  -0.98102  -0.96554
 Alpha virt. eigenvalues --   -0.25460  -0.17320  -0.08022  -0.07055  -0.04587
 Alpha virt. eigenvalues --   -0.04138   0.02261   0.03713   0.62417   0.70600
 Alpha virt. eigenvalues --    0.75407   0.82419   0.86617   1.05301   1.13121

  Beta  occ. eigenvalues --  -20.24169  -1.58909  -1.06915  -0.92912
  Beta virt. eigenvalues --   -0.51986  -0.24657  -0.16875  -0.06780  -0.05353
  Beta virt. eigenvalues --   -0.04512  -0.03542   0.02391   0.04246   0.62636
  Beta virt. eigenvalues --    0.71846   0.83963   0.85640   0.87463   1.06965

 Mulliken charges and spin densities:
               1          2
     1  O    0.049957   1.056586
     2  H    0.475022  -0.028293
     3  H    0.475022  -0.028293
 Sum of Mulliken charges =   1.00000   1.00000

 Dipole moment (field-independent basis, Debye):
    X=              0.0000    Y=              0.0000    Z=             -2.3438  Tot=              2.3438
 Quadrupole moment (field-independent basis, Debye-Ang):
   XX=             -4.7319   YY=             -2.1238   ZZ=             -4.2896
   XY=              0.0000   XZ=              0.0000   YZ=              0.0000

 Normal termination of Gaussian 09 at Wed Oct 17 14:26:19 2018.
