                         Program Version 4.0.0.2 - RELEASE -
|  1> %basis
|  2> Basis "LANL2DZ"        # The orbital expansion basis set
|  3> end
|  4>
|  5> ! ENERGY B3LYP RIJCOSX           # for small systems increase accuracy by: Grid5 FinalGrid6
|  6> ! AUTOSTART         # try to read from previous step
|  7> * xyz 0 1
|  8>  O    -0.000064     0.000000    -0.000050
|  9>  H    -0.000979     0.000000     0.961319
| 10>  H     0.932527     0.000000    -0.233514
| 11> *
| 12> $new_job
| 13> ! ENGRAD B3LYP RIJCOSX
| 14> ! moread
| 15> %basis
| 16>  Basis "LANL2DZ"        # The orbital expansion basis set
| 17> end
| 18> %tddft
| 19>   maxdim 5
| 20>   nroots 4
| 21>   maxcore 8000
| 22>   iroot 1
| 23> end
| 24> * xyz 0 1
| 25>  O    -0.000064     0.000000    -0.000050
| 26>  H    -0.000979     0.000000     0.961319
| 27>  H     0.932527     0.000000    -0.233514
| 28> *
| 29>
| 30>                          ****END OF INPUT****
 Total Charge           Charge          ....    0
 Multiplicity           Mult            ....    1
 Number of Electrons    NEL             ....   10
FINAL SINGLE POINT ENERGY       -76.375684312270

CARTESIAN COORDINATES (ANGSTROEM)
---------------------------------
  O     -0.000064    0.000000   -0.000050
  H     -0.000979    0.000000    0.961319
  H      0.932527    0.000000   -0.233514

 Multiplicity           Mult            ....    1
 Number of Electrons    NEL             ....   10
 Basis Dimension        Dim             ....   13

ORBITAL ENERGIES
----------------

  NO   OCC          E(Eh)            E(eV)
   0   2.0000     -19.135859      -520.7132
   1   2.0000      -1.020861       -27.7790
   2   2.0000      -0.532108       -14.4794
   3   2.0000      -0.362323        -9.8593
   4   2.0000      -0.298695        -8.1279
   5   0.0000       0.068397         1.8612
   6   0.0000       0.153616         4.1801
   7   0.0000       0.638397        17.3717
   8   0.0000       0.658531        17.9195
   9   0.0000       0.707102        19.2412

MULLIKEN ATOMIC CHARGES
-----------------------
   0 O :   -0.692454
   1 H :    0.346098
   2 H :    0.346355
Sum of atomic charges:   -0.0000000

LOEWDIN ATOMIC CHARGES
----------------------
   0 O :   -0.562869
   1 H :    0.281371
   2 H :    0.281497

  Mayer bond orders larger than 0.1
B(  0-O ,  1-H ) :   0.8478 B(  0-O ,  2-H ) :   0.8470

-----------------------------------------------------------------------------
         ABSORPTION SPECTRUM VIA TRANSITION ELECTRIC DIPOLE MOMENTS
-----------------------------------------------------------------------------
State   Energy  Wavelength   fosc         T2         TX        TY        TZ
        (cm-1)    (nm)                  (au**2)     (au)      (au)      (au)
-----------------------------------------------------------------------------
   1   66997.7    149.3   0.015839553   0.07783   0.00000   0.27898   0.00000
   2   82706.7    120.9   0.000000139   0.00000   0.00000  -0.00074   0.00000
   3   83495.1    119.8   0.114847742   0.45283  -0.53203   0.00000  -0.41203
   4  103471.1     96.6   0.100777734   0.32064   0.34845   0.00000  -0.44634

FINAL SINGLE POINT ENERGY       -76.070420144116

DIPOLE MOMENT
-------------
                                X             Y             Z
Electronic contribution:     -0.71714      -0.00000      -0.54886
Nuclear contribution   :      0.77549       0.00000       0.60588
                        -----------------------------------------
Total Dipole Moment    :      0.05835      -0.00000       0.05702
                        -----------------------------------------
Magnitude (a.u.)       :      0.08158
Magnitude (Debye)      :      0.20736

                             ****ORCA TERMINATED NORMALLY****
TOTAL RUN TIME: 0 days 0 hours 0 minutes 13 seconds 163 msec
