                         Program Version 4.0.0.2 - RELEASE -
|  1> ! ENERGY BHANDHLYP def2-svp def2/jk RIJCOSX           # for small systems increase accuracy by: Grid5 FinalGrid6
|  2> ! NOPOP
|  3> ! MiniPrint
|  4> ! AUTOSTART         # try to read from previous step
|  5> * xyz 1 2
|  6>  O -5.2127658215874867e-02 0.0000000000000000e+00 -4.0726586338626733e-02
|  7>  H -5.3042658215874866e-02 0.0000000000000000e+00 9.2064241366137334e-01
|  8>  H 8.8046334178412511e-01 0.0000000000000000e+00 -2.7419058633862675e-01
|  9> *
| 10> $new_job
| 11> ! ENGRAD BHANDHLYP def2-svp def2/jk RIJCOSX
| 12> ! NOPOP
| 13> ! moread
| 14> ! MiniPrint
| 15>
| 16> %tddft
| 17>   maxdim 5
| 18>   nroots 2
| 19>   maxcore 8000
| 20>   iroot 2
| 21>   PrintLevel 3
| 22> end
| 23> * xyz 1 2
| 24>  O -5.2127658215874867e-02 0.0000000000000000e+00 -4.0726586338626733e-02
| 25>  H -5.3042658215874866e-02 0.0000000000000000e+00 9.2064241366137334e-01
| 26>  H 8.8046334178412511e-01 0.0000000000000000e+00 -2.7419058633862675e-01
| 27> *
| 28>
| 29>                          ****END OF INPUT****
FINAL SINGLE POINT ENERGY       -75.872703320799

CARTESIAN COORDINATES (ANGSTROEM)
---------------------------------
  O     -0.052128    0.000000   -0.040727
  H     -0.053043    0.000000    0.920642
  H      0.880463    0.000000   -0.274191

ORBITAL ENERGIES
----------------
                 SPIN UP ORBITALS
  NO   OCC          E(Eh)            E(eV)
   0   1.0000     -20.254637      -551.1567
   1   1.0000      -1.666921       -45.3592
   2   1.0000      -1.095158       -29.8008
   3   1.0000      -0.982154       -26.7258
   4   1.0000      -0.965427       -26.2706
   5   0.0000      -0.237026        -6.4498
   6   0.0000      -0.154685        -4.2092
   7   0.0000       0.254131         6.9153
   8   0.0000       0.307918         8.3789
   9   0.0000       0.514696        14.0056

                 SPIN DOWN ORBITALS
  NO   OCC          E(Eh)            E(eV)
   0   1.0000     -20.221805      -550.2633
   1   1.0000      -1.571508       -42.7629
   2   1.0000      -1.069770       -29.1099
   3   1.0000      -0.928948       -25.2780
   4   0.0000      -0.516286       -14.0488
   5   0.0000      -0.227067        -6.1788
   6   0.0000      -0.148669        -4.0455
   7   0.0000       0.252757         6.8779
   8   0.0000       0.319183         8.6854

Total SCF time: 0 days 0 hours 0 min 1 sec
------------------------------------------------------------------------------
                        ORCA TD-DFT/TDA CALCULATION
------------------------------------------------------------------------------

-----------------------------------------------------------------------------
         ABSORPTION SPECTRUM VIA TRANSITION ELECTRIC DIPOLE MOMENTS
-----------------------------------------------------------------------------
State   Energy  Wavelength   fosc         T2         TX        TY        TZ
        (cm-1)    (nm)                  (au**2)     (au)      (au)      (au)
-----------------------------------------------------------------------------
   1   19115.5    523.1   0.001562559   0.02691   0.00000   0.16405   0.00000
   2   52450.1    190.7   0.000000001   0.00000   0.00000  -0.00008  -0.00000

FINAL SINGLE POINT ENERGY       -75.633723263275

DIPOLE MOMENT
-------------
                                X             Y             Z
Electronic contribution:      0.17911      -0.00000       0.13996
Nuclear contribution   :      0.77549       0.00000       0.60588
                        -----------------------------------------
Total Dipole Moment    :      0.95460      -0.00000       0.74584
                        -----------------------------------------
Magnitude (a.u.)       :      1.21142
Magnitude (Debye)      :      3.07919

                             ****ORCA TERMINATED NORMALLY****
TOTAL RUN TIME: 0 days 0 hours 0 minutes 8 seconds 59 msec
