 Gaussian 09, Revision D.01,
 Gaussian 09:  ES64L-G09RevD.01 24-Apr-2013

 --------------------------------------
 #BLYP/6-31g* Force guess=(Read,TCheck)
 --------------------------------------

 -------
 comment
 -------
 Symbolic Z-matrix:
 Charge =  0 Multiplicity = 1

                         Standard orientation:
 ---------------------------------------------------------------------
 Center     Atomic      Atomic             Coordinates (Angstroms)
 Number     Number       Type             X           Y           Z
 ---------------------------------------------------------------------
      1          8           0        0.000000    0.000000    0.118894
      2          1           0        0.000000   -0.761388   -0.475576
      3          1           0        0.000000    0.761388   -0.475576
 ---------------------------------------------------------------------

 SCF Done:  E(RB-LYP) =  -76.3882039552     A.U. after    6 cycles

 The electronic state is 1-A1.
 Alpha  occ. eigenvalues --  -18.78248  -0.89920  -0.45757  -0.30629  -0.22375
 Alpha virt. eigenvalues --    0.03755   0.12109   0.72737   0.80166   0.83695
 Alpha virt. eigenvalues --    0.84902   1.00668   1.14792   1.67317   1.68922
 Alpha virt. eigenvalues --    1.72376   2.21763   2.51030   3.46576

 Mulliken charges:
               1
     1  O   -0.739766
     2  H    0.369883
     3  H    0.369883
 Sum of Mulliken charges =   0.00000

 Dipole moment (field-independent basis, Debye):
    X=              0.0000    Y=              0.0000    Z=             -2.0178  Tot=              2.0178
 Quadrupole moment (field-independent basis, Debye-Ang):
   XX=             -7.1981   YY=             -4.3541   ZZ=             -6.0320
   XY=              0.0000   XZ=              0.0000   YZ=              0.0000

 Normal termination of Gaussian 09 at Thu Jul 19 10:42:45 2018.
